[ C_alpha ]
5 13 22 29 37 43 52 65 74 85 93 106 112 118 139
144 157 165 170 176 190 196 201 211 229 234 240 250 256 265
275 292 301 318 327 335 351 359 368 377 390 399 417 433 441
455 472 481 490 498 512 517 525 531 543 551 564 569 583 588
601 614 622 628 637 643 652 661 672 678 686 692 706 714 723
732 740 748 759 765 774 782 788 797 805 814 823 837 843 857
870 879 896 904 912 920 928 939 956 969 978 987 995 1009 1017
1026 1035 1043 1052 1061 1067 1073 1087 1095 1103 1109 1119 1136 1144 1152
1158 1166 1180 1186 1194 1203 1212 1225 1242 1251 1257 1265 1273 1281 1290
1298 1307 1316 1324 1337 1355 1375 1383 1397 1406 1414 1422 1430 1440 1453
1461 1467 1475 1484 1490 1499 1520 1525 1538 1546 1557 1565 1574 1584 1592
1597 1602 1612 1618 1627 1632 1649 1658 1667 1675 1683 1700 1708 1729 1738
1750 1767 1784 1801 1811 1819 1836 1841 1850 1859 1867 1875 1883 1892 1898
1906 1915 1920 1930 1938 1951 1959 1972 1978 1992 1997 2010 2023 2031 2040
2045 2051 2068 2076 2085 2090 2099 2105 2119 2128 2137 2148 2157 2170 2175
2184 2201 2207 2216 2225 2233 2243 2252 2266 2274 2283 2296 2305 2319 2327
2335 2343 2353 2364 2381 2398 2407 2416 2421 2432 2440 2449 2457 2465 2473
2482 2488 2502 2516 2533 2538 2551 2561 2578 2586 2593 2601 2609 2621 2627
2633 2651 2663 2676 2684 2692 2698 2703 2711 2717 2728 2734 2743 2749 2763
2776 2794 2811 2819 2828 2835 2843 2849 2858 2871 2880 2891 2899 2912 2918
2924 2945 2950 2963 2971 2976 2982 2996 3002 3007 3017 3035 3040 3046 3056
3062 3071 3081 3098 3107 3124 3133 3141 3157 3165 3174 3183 3196 3205 3223
3239 3247 3261 3278 3287 3296 3304 3318 3323 3331 3337 3349 3357 3370 3375
3389 3394 3407 3420 3428 3434 3443 3449 3458 3467 3478 3484 3492 3498 3512
3520 3529 3538 3546 3554 3565 3571 3580 3588 3594 3603 3611 3620 3629 3643
3649 3663 3676 3685 3702 3710 3718 3726 3734 3745 3762 3775 3784 3793 3801
3815 3823 3832 3841 3849 3858 3867 3873 3879 3893 3901 3909 3915 3925 3942
3950 3958 3964 3972 3986 3992 4000 4009 4018 4031 4048 4057 4063 4071 4079
4087 4096 4104 4113 4122 4130 4143 4161 4181 4189 4203 4212 4220 4228 4236
4246 4259 4267 4273 4281 4290 4296 4305 4326 4331 4344 4352 4363 4371 4380
4390 4398 4403 4408 4418 4424 4433 4438 4455 4464 4473 4481 4489 4506 4514
4535 4544 4556 4573 4590 4607 4617 4625 4642 4647 4656 4665 4673 4681 4689
4698 4704 4712 4721 4726 4736 4744 4757 4765 4778 4784 4798 4803 4816 4829
4837 4846 4851 4857 4874 4882 4891 4896 4905 4911 4925 4934 4943 4954 4963
4976 4981 4990 5007 5013 5022 5031 5039 5049 5058 5072 5080 5089 5102 5111
5125 5133 5141 5149 5159 5170 5187 5204 5213 5222 5227 5238 5246 5255 5263
5271 5279 5288 5294 5308 5322 5339 5344 5357 5367 5384 5392 5399 5407 5415
5427 5433 5439 5457 5469 5482 5490 5498 5504 5509 5517 5523 5534 5540 5549
5555 5569 5582 5600
