[ Backbone ]
1 5 9 11 13 18 20 22 26 28 29 33 35 37 39
41 43 48 50 52 61 63 65 70 72 74 81 83 85 89
91 93 102 104 106 108 110 112 114 116 118 135 137 139 140
142 144 153 155 157 161 163 165 166 168 170 172 174 176 186
188 190 192 194 196 197 199 201 207 209 211 225 227 229 230
232 234 236 238 240 246 248 250 252 254 256 261 263 265 271
273 275 288 290 292 297 299 301 314 316 318 323 325 327 331
333 335 348 350 351 355 357 359 364 366 368 373 375 377 386
388 390 395 397 399 413 415 417 430 432 433 437 439 441 451
453 455 468 470 472 477 479 481 486 488 490 494 496 498 508
510 512 513 515 517 521 523 525 527 529 531 539 541 543 547
549 551 560 562 564 565 567 569 579 581 583 584 586 588 597
599 601 610 612 614 618 620 622 624 626 628 633 635 637 639
641 643 648 650 652 657 659 661 668 670 672 674 676 678 682
684 686 688 690 692 702 704 706 710 712 714 719 721 723 728
730 732 737 739 740 744 746 748 755 757 759 761 763 765 770
772 774 778 780 782 784 786 788 793 795 797 801 803 805 810
812 814 819 821 823 833 835 837 839 841 843 853 855 857 866
868 870 875 877 879 892 894 896 900 902 904 909 911 912 916
918 920 924 926 928 935 937 939 952 954 956 965 967 969 974
976 978 983 985 987 991 993 995 1005 1007 1009 1013 1015 1017 1022
1024 1026 1031 1033 1035 1039 1041 1043 1048 1050 1052 1057 1059 1061 1063
1065 1067 1069 1071 1073 1083 1085 1087 1092 1094 1095 1099 1101 1103 1105
1107 1109 1115 1117 1119 1132 1134 1136 1141 1143 1144 1148 1150 1152 1154
1156 1158 1162 1164 1166 1176 1178 1180 1182 1184 1186 1190 1192 1194 1199
1201 1203 1208 1210 1212 1221 1223 1225 1238 1240 1242 1247 1249 1251 1253
1255 1257 1261 1263 1265 1269 1271 1273 1277 1279 1281 1286 1288 1290 1294
1296 1298 1303 1305 1307 1312 1314 1316 1320 1322 1324 1333 1335 1337 1351
1353 1355 1368 1371 1375 1379 1381 1383 1393 1395 1397 1402 1404 1406 1411
1413 1414 1418 1420 1422 1426 1428 1430 1436 1438 1440 1449 1451 1453 1457
1459 1461 1463 1465 1467 1471 1473 1475 1480 1482 1484 1486 1488 1490 1495
1497 1499 1516 1518 1520 1521 1523 1525 1534 1536 1538 1542 1544 1546 1553
1555 1557 1561 1563 1565 1570 1572 1574 1580 1582 1584 1588 1590 1592 1593
1595 1597 1598 1600 1602 1608 1610 1612 1614 1616 1618 1623 1625 1627 1628
1630 1632 1645 1647 1649 1654 1656 1658 1663 1665 1667 1671 1673 1675 1679
1681 1683 1697 1699 1700 1704 1706 1708 1725 1727 1729 1734 1736 1738 1746
1748 1750 1763 1765 1767 1780 1782 1784 1797 1799 1801 1807 1809 1811 1815
1817 1819 1832 1834 1836 1837 1839 1841 1846 1848 1850 1855 1857 1859 1863
1865 1867 1872 1874 1875 1879 1881 1883 1888 1890 1892 1894 1896 1898 1902
1904 1906 1911 1913 1915 1916 1918 1920 1927 1929 1930 1934 1936 1938 1947
1949 1951 1955 1957 1959 1968 1970 1972 1974 1976 1978 1988 1990 1992 1993
1995 1997 2006 2008 2010 2019 2021 2023 2027 2029 2031 2036 2038 2040 2041
2043 2045 2047 2049 2051 2064 2066 2068 2072 2074 2076 2081 2083 2085 2086
2088 2090 2095 2097 2099 2101 2103 2105 2115 2117 2119 2124 2126 2128 2133
2135 2137 2144 2146 2148 2153 2155 2157 2166 2168 2170 2171 2173 2175 2180
2182 2184 2197 2199 2201 2203 2205 2207 2212 2214 2216 2221 2223 2225 2229
2231 2233 2239 2241 2243 2248 2250 2252 2262 2264 2266 2270 2272 2274 2279
2281 2283 2292 2294 2296 2301 2303 2305 2315 2317 2319 2323 2325 2327 2332
2334 2335 2339 2341 2343 2349 2351 2353 2360 2362 2364 2377 2379 2381 2394
2396 2398 2403 2405 2407 2412 2414 2416 2417 2419 2421 2428 2430 2432 2436
2438 2440 2445 2447 2449 2453 2455 2457 2461 2463 2465 2469 2471 2473 2478
2480 2482 2484 2486 2488 2498 2500 2502 2512 2514 2516 2529 2531 2533 2534
2536 2538 2547 2549 2551 2557 2559 2561 2574 2576 2578 2583 2585 2586 2590
2592 2593 2597 2599 2601 2605 2607 2609 2617 2619 2621 2623 2625 2627 2629
2631 2633 2647 2649 2651 2659 2661 2663 2672 2674 2676 2680 2682 2684 2688
2690 2692 2694 2696 2698 2699 2701 2703 2707 2709 2711 2713 2715 2717 2724
2726 2728 2730 2732 2734 2739 2741 2743 2745 2747 2749 2759 2761 2763 2772
2774 2776 2790 2792 2794 2804 2807 2811 2815 2817 2819 2824 2826 2828 2832
2834 2835 2839 2841 2843 2845 2847 2849 2854 2856 2858 2867 2869 2871 2876
2878 2880 2887 2889 2891 2895 2897 2899 2908 2910 2912 2914 2916 2918 2920
2922 2924 2941 2943 2945 2946 2948 2950 2959 2961 2963 2967 2969 2971 2972
2974 2976 2978 2980 2982 2992 2994 2996 2998 3000 3002 3003 3005 3007 3013
3015 3017 3031 3033 3035 3036 3038 3040 3042 3044 3046 3052 3054 3056 3058
3060 3062 3067 3069 3071 3077 3079 3081 3094 3096 3098 3103 3105 3107 3120
3122 3124 3129 3131 3133 3137 3139 3141 3154 3156 3157 3161 3163 3165 3170
3172 3174 3179 3181 3183 3192 3194 3196 3201 3203 3205 3219 3221 3223 3236
3238 3239 3243 3245 3247 3257 3259 3261 3274 3276 3278 3283 3285 3287 3292
3294 3296 3300 3302 3304 3314 3316 3318 3319 3321 3323 3327 3329 3331 3333
3335 3337 3345 3347 3349 3353 3355 3357 3366 3368 3370 3371 3373 3375 3385
3387 3389 3390 3392 3394 3403 3405 3407 3416 3418 3420 3424 3426 3428 3430
3432 3434 3439 3441 3443 3445 3447 3449 3454 3456 3458 3463 3465 3467 3474
3476 3478 3480 3482 3484 3488 3490 3492 3494 3496 3498 3508 3510 3512 3516
3518 3520 3525 3527 3529 3534 3536 3538 3543 3545 3546 3550 3552 3554 3561
3563 3565 3567 3569 3571 3576 3578 3580 3584 3586 3588 3590 3592 3594 3599
3601 3603 3607 3609 3611 3616 3618 3620 3625 3627 3629 3639 3641 3643 3645
3647 3649 3659 3661 3663 3672 3674 3676 3681 3683 3685 3698 3700 3702 3706
3708 3710 3715 3717 3718 3722 3724 3726 3730 3732 3734 3741 3743 3745 3758
3760 3762 3771 3773 3775 3780 3782 3784 3789 3791 3793 3797 3799 3801 3811
3813 3815 3819 3821 3823 3828 3830 3832 3837 3839 3841 3845 3847 3849 3854
3856 3858 3863 3865 3867 3869 3871 3873 3875 3877 3879 3889 3891 3893 3898
3900 3901 3905 3907 3909 3911 3913 3915 3921 3923 3925 3938 3940 3942 3947
3949 3950 3954 3956 3958 3960 3962 3964 3968 3970 3972 3982 3984 3986 3988
3990 3992 3996 3998 4000 4005 4007 4009 4014 4016 4018 4027 4029 4031 4044
4046 4048 4053 4055 4057 4059 4061 4063 4067 4069 4071 4075 4077 4079 4083
4085 4087 4092 4094 4096 4100 4102 4104 4109 4111 4113 4118 4120 4122 4126
4128 4130 4139 4141 4143 4157 4159 4161 4174 4177 4181 4185 4187 4189 4199
4201 4203 4208 4210 4212 4217 4219 4220 4224 4226 4228 4232 4234 4236 4242
4244 4246 4255 4257 4259 4263 4265 4267 4269 4271 4273 4277 4279 4281 4286
4288 4290 4292 4294 4296 4301 4303 4305 4322 4324 4326 4327 4329 4331 4340
4342 4344 4348 4350 4352 4359 4361 4363 4367 4369 4371 4376 4378 4380 4386
4388 4390 4394 4396 4398 4399 4401 4403 4404 4406 4408 4414 4416 4418 4420
4422 4424 4429 4431 4433 4434 4436 4438 4451 4453 4455 4460 4462 4464 4469
4471 4473 4477 4479 4481 4485 4487 4489 4503 4505 4506 4510 4512 4514 4531
4533 4535 4540 4542 4544 4552 4554 4556 4569 4571 4573 4586 4588 4590 4603
4605 4607 4613 4615 4617 4621 4623 4625 4638 4640 4642 4643 4645 4647 4652
4654 4656 4661 4663 4665 4669 4671 4673 4678 4680 4681 4685 4687 4689 4694
4696 4698 4700 4702 4704 4708 4710 4712 4717 4719 4721 4722 4724 4726 4733
4735 4736 4740 4742 4744 4753 4755 4757 4761 4763 4765 4774 4776 4778 4780
4782 4784 4794 4796 4798 4799 4801 4803 4812 4814 4816 4825 4827 4829 4833
4835 4837 4842 4844 4846 4847 4849 4851 4853 4855 4857 4870 4872 4874 4878
4880 4882 4887 4889 4891 4892 4894 4896 4901 4903 4905 4907 4909 4911 4921
4923 4925 4930 4932 4934 4939 4941 4943 4950 4952 4954 4959 4961 4963 4972
4974 4976 4977 4979 4981 4986 4988 4990 5003 5005 5007 5009 5011 5013 5018
5020 5022 5027 5029 5031 5035 5037 5039 5045 5047 5049 5054 5056 5058 5068
5070 5072 5076 5078 5080 5085 5087 5089 5098 5100 5102 5107 5109 5111 5121
5123 5125 5129 5131 5133 5138 5140 5141 5145 5147 5149 5155 5157 5159 5166
5168 5170 5183 5185 5187 5200 5202 5204 5209 5211 5213 5218 5220 5222 5223
5225 5227 5234 5236 5238 5242 5244 5246 5251 5253 5255 5259 5261 5263 5267
5269 5271 5275 5277 5279 5284 5286 5288 5290 5292 5294 5304 5306 5308 5318
5320 5322 5335 5337 5339 5340 5342 5344 5353 5355 5357 5363 5365 5367 5380
5382 5384 5389 5391 5392 5396 5398 5399 5403 5405 5407 5411 5413 5415 5423
5425 5427 5429 5431 5433 5435 5437 5439 5453 5455 5457 5465 5467 5469 5478
5480 5482 5486 5488 5490 5494 5496 5498 5500 5502 5504 5505 5507 5509 5513
5515 5517 5519 5521 5523 5530 5532 5534 5536 5538 5540 5545 5547 5549 5551
5553 5555 5565 5567 5569 5578 5580 5582 5596 5598 5600 5610
