[ Backbone ]
1 5 9 11 13 18 20 22 26 28 29 33 35 37 39
41 43 48 50 52 61 63 65 70 72 74 81 83 85 89
91 93 102 104 106 108 110 112 114 116 118 135 137 139 140
142 144 153 155 157 161 163 165 166 168 170 172 174 176 186
188 190 192 194 196 197 199 201 207 209 211 225 227 229 230
232 234 236 238 240 246 248 250 252 254 256 261 263 265 271
273 275 288 290 292 297 299 301 314 316 318 323 325 327 331
333 335 348 350 351 355 357 359 364 366 368 373 375 377 386
388 390 395 397 399 413 415 417 430 432 433 437 439 441 451
453 455 468 470 472 477 479 481 486 488 490 494 496 498 508
510 512 513 515 517 521 523 525 527 529 531 539 541 543 547
549 551 560 562 564 565 567 569 579 581 583 584 586 588 597
599 601 610 612 614 618 620 622 624 626 628 633 635 637 639
641 643 648 650 652 657 659 661 668 670 672 674 676 678 682
684 686 688 690 692 702 704 706 710 712 714 719 721 723 728
730 732 737 739 740 744 746 748 755 757 759 761 763 765 770
772 774 778 780 782 784 786 788 793 795 797 801 803 805 810
812 814 819 821 823 833 835 837 839 841 843 853 855 857 866
868 870 875 877 879 892 894 896 900 902 904 909 911 912 916
918 920 924 926 928 935 937 939 952 954 956 965 967 969 974
976 978 983 985 987 991 993 995 1005 1007 1009 1013 1015 1017 1022
1024 1026 1031 1033 1035 1039 1041 1043 1048 1050 1052 1057 1059 1061 1063
1065 1067 1069 1071 1073 1083 1085 1087 1092 1094 1095 1099 1101 1103 1105
1107 1109 1115 1117 1119 1132 1134 1136 1141 1143 1144 1148 1150 1152 1154
1156 1158 1162 1164 1166 1176 1178 1180 1182 1184 1186 1190 1192 1194 1199
1201 1203 1208 1210 1212 1221 1223 1225 1238 1240 1242 1247 1249 1251 1253
1255 1257 1261 1263 1265 1269 1271 1273 1277 1279 1281 1286 1288 1290 1294
1296 1298 1303 1305 1307 1312 1314 1316 1320 1322 1324 1333 1335 1337 1351
1353 1355 1368 1371 1375 1379 1381 1383 1393 1395 1397 1402 1404 1406 1411
1413 1414 1418 1420 1422 1428 1430 1432 1438 1440 1442 1451 1453 1455 1459
1461 1463 1465 1467 1469 1473 1475 1477 1482 1484 1486 1488 1490 1492 1497
1499 1501 1518 1520 1522 1523 1525 1527 1536 1538 1540 1544 1546 1548 1555
1557 1559 1563 1565 1567 1572 1574 1576 1582 1584 1586 1590 1592 1594 1595
1597 1599 1600 1602 1604 1610 1612 1614 1616 1618 1620 1625 1627 1629 1630
1632 1634 1647 1649 1651 1656 1658 1660 1665 1667 1669 1673 1675 1677 1681
1683 1685 1699 1701 1702 1706 1708 1710 1727 1729 1731 1736 1738 1740 1748
1750 1752 1765 1767 1769 1782 1784 1786 1799 1801 1803 1809 1811 1813 1817
1819 1821 1834 1836 1838 1839 1841 1843 1848 1850 1852 1857 1859 1861 1865
1867 1869 1874 1876 1877 1881 1883 1885 1890 1892 1894 1896 1898 1900 1904
1906 1908 1913 1915 1917 1918 1920 1922 1929 1931 1932 1936 1938 1940 1949
1951 1953 1957 1959 1961 1970 1972 1974 1976 1978 1980 1990 1992 1994 1995
1997 1999 2008 2010 2012 2021 2023 2025 2029 2031 2033 2038 2040 2042 2043
2045 2047 2049 2051 2053 2066 2068 2070 2074 2076 2078 2083 2085 2087 2088
2090 2092 2097 2099 2101 2103 2105 2107 2117 2119 2121 2126 2128 2130 2135
2137 2139 2146 2148 2150 2155 2157 2159 2168 2170 2172 2173 2175 2177 2182
2184 2186 2199 2201 2203 2205 2207 2209 2214 2216 2218 2223 2225 2227 2231
2233 2235 2241 2243 2245 2250 2252 2254 2264 2266 2268 2272 2274 2276 2281
2283 2285 2294 2296 2298 2303 2305 2307 2317 2319 2321 2325 2327 2329 2334
2336 2337 2341 2343 2345 2351 2353 2355 2362 2364 2366 2379 2381 2383 2396
2398 2400 2405 2407 2409 2414 2416 2418 2419 2421 2423 2430 2432 2434 2438
2440 2442 2447 2449 2451 2455 2457 2459 2463 2465 2467 2471 2473 2475 2480
2482 2484 2486 2488 2490 2500 2502 2504 2514 2516 2518 2531 2533 2535 2536
2538 2540 2549 2551 2553 2559 2561 2563 2576 2578 2580 2585 2587 2588 2592
2594 2595 2599 2601 2603 2607 2609 2611 2619 2621 2623 2625 2627 2629 2631
2633 2635 2649 2651 2653 2661 2663 2665 2674 2676 2678 2682 2684 2686 2690
2692 2694 2696 2698 2700 2701 2703 2705 2709 2711 2713 2715 2717 2719 2726
2728 2730 2732 2734 2736 2741 2743 2745 2747 2749 2751 2761 2763 2765 2774
2776 2778 2792 2794 2796 2806 2809 2813 2817 2819 2821 2826 2828 2830 2834
2836 2837 2841 2843 2845 2847 2849 2851 2856 2858 2860 2869 2871 2873 2878
2880 2882 2889 2891 2893 2897 2899 2901 2910 2912 2914 2916 2918 2920 2922
2924 2926 2943 2945 2947 2948 2950 2952 2961 2963 2965 2969 2971 2973 2974
2976 2978 2980 2982 2984 2994 2996 2998 3000 3002 3004 3005 3007 3009 3015
3017 3019 3033 3035 3037 3038 3040 3042 3044 3046 3048 3054 3056 3058 3060
3062 3064 3069 3071 3073 3079 3081 3083 3096 3098 3100 3105 3107 3109 3122
3124 3126 3131 3133 3135 3139 3141 3143 3156 3158 3159 3163 3165 3167 3172
3174 3176 3181 3183 3185 3194 3196 3198 3203 3205 3207 3221 3223 3225 3238
3240 3241 3245 3247 3249 3259 3261 3263 3276 3278 3280 3285 3287 3289 3294
3296 3298 3302 3304 3306 3316 3318 3320 3321 3323 3325 3329 3331 3333 3335
3337 3339 3347 3349 3351 3355 3357 3359 3368 3370 3372 3373 3375 3377 3387
3389 3391 3392 3394 3396 3405 3407 3409 3418 3420 3422 3426 3428 3430 3432
3434 3436 3441 3443 3445 3447 3449 3451 3456 3458 3460 3465 3467 3469 3476
3478 3480 3482 3484 3486 3490 3492 3494 3496 3498 3500 3510 3512 3514 3518
3520 3522 3527 3529 3531 3536 3538 3540 3545 3547 3548 3552 3554 3556 3563
3565 3567 3569 3571 3573 3578 3580 3582 3586 3588 3590 3592 3594 3596 3601
3603 3605 3609 3611 3613 3618 3620 3622 3627 3629 3631 3641 3643 3645 3647
3649 3651 3661 3663 3665 3674 3676 3678 3683 3685 3687 3700 3702 3704 3708
3710 3712 3717 3719 3720 3724 3726 3728 3732 3734 3736 3743 3745 3747 3760
3762 3764 3773 3775 3777 3782 3784 3786 3791 3793 3795 3799 3801 3803 3813
3815 3817 3821 3823 3825 3830 3832 3834 3839 3841 3843 3847 3849 3851 3856
3858 3860 3865 3867 3869 3871 3873 3875 3877 3879 3881 3891 3893 3895 3900
3902 3903 3907 3909 3911 3913 3915 3917 3923 3925 3927 3940 3942 3944 3949
3951 3952 3956 3958 3960 3962 3964 3966 3970 3972 3974 3984 3986 3988 3990
3992 3994 3998 4000 4002 4007 4009 4011 4016 4018 4020 4029 4031 4033 4046
4048 4050 4055 4057 4059 4061 4063 4065 4069 4071 4073 4077 4079 4081 4085
4087 4089 4094 4096 4098 4102 4104 4106 4111 4113 4115 4120 4122 4124 4128
4130 4132 4141 4143 4145 4159 4161 4163 4176 4179 4183 4187 4189 4191 4201
4203 4205 4210 4212 4214 4219 4221 4222 4226 4228 4230 4236 4238 4240 4246
4248 4250 4259 4261 4263 4267 4269 4271 4273 4275 4277 4281 4283 4285 4290
4292 4294 4296 4298 4300 4305 4307 4309 4326 4328 4330 4331 4333 4335 4344
4346 4348 4352 4354 4356 4363 4365 4367 4371 4373 4375 4380 4382 4384 4390
4392 4394 4398 4400 4402 4403 4405 4407 4408 4410 4412 4418 4420 4422 4424
4426 4428 4433 4435 4437 4438 4440 4442 4455 4457 4459 4464 4466 4468 4473
4475 4477 4481 4483 4485 4489 4491 4493 4507 4509 4510 4514 4516 4518 4535
4537 4539 4544 4546 4548 4556 4558 4560 4573 4575 4577 4590 4592 4594 4607
4609 4611 4617 4619 4621 4625 4627 4629 4642 4644 4646 4647 4649 4651 4656
4658 4660 4665 4667 4669 4673 4675 4677 4682 4684 4685 4689 4691 4693 4698
4700 4702 4704 4706 4708 4712 4714 4716 4721 4723 4725 4726 4728 4730 4737
4739 4740 4744 4746 4748 4757 4759 4761 4765 4767 4769 4778 4780 4782 4784
4786 4788 4798 4800 4802 4803 4805 4807 4816 4818 4820 4829 4831 4833 4837
4839 4841 4846 4848 4850 4851 4853 4855 4857 4859 4861 4874 4876 4878 4882
4884 4886 4891 4893 4895 4896 4898 4900 4905 4907 4909 4911 4913 4915 4925
4927 4929 4934 4936 4938 4943 4945 4947 4954 4956 4958 4963 4965 4967 4976
4978 4980 4981 4983 4985 4990 4992 4994 5007 5009 5011 5013 5015 5017 5022
5024 5026 5031 5033 5035 5039 5041 5043 5049 5051 5053 5058 5060 5062 5072
5074 5076 5080 5082 5084 5089 5091 5093 5102 5104 5106 5111 5113 5115 5125
5127 5129 5133 5135 5137 5142 5144 5145 5149 5151 5153 5159 5161 5163 5170
5172 5174 5187 5189 5191 5204 5206 5208 5213 5215 5217 5222 5224 5226 5227
5229 5231 5238 5240 5242 5246 5248 5250 5255 5257 5259 5263 5265 5267 5271
5273 5275 5279 5281 5283 5288 5290 5292 5294 5296 5298 5308 5310 5312 5322
5324 5326 5339 5341 5343 5344 5346 5348 5357 5359 5361 5367 5369 5371 5384
5386 5388 5393 5395 5396 5400 5402 5403 5407 5409 5411 5415 5417 5419 5427
5429 5431 5433 5435 5437 5439 5441 5443 5457 5459 5461 5469 5471 5473 5482
5484 5486 5490 5492 5494 5498 5500 5502 5504 5506 5508 5509 5511 5513 5517
5519 5521 5523 5525 5527 5534 5536 5538 5540 5542 5544 5549 5551 5553 5555
5557 5559 5569 5571 5573 5582 5584 5586 5600 5602 5604 5614
