[ C_alpha ]
5 13 22 29 37 43 52 65 74 85 93 106 112 118 139
144 157 165 170 176 190 196 201 211 229 234 240 250 256 265
275 292 301 318 327 335 351 359 368 377 390 399 417 433 441
455 472 481 490 498 512 517 525 531 543 551 564 569 583 588
601 614 622 628 637 643 652 661 672 678 686 692 706 714 723
732 740 748 759 765 774 782 788 797 805 814 823 837 843 857
870 879 896 904 912 920 928 939 956 969 978 987 995 1009 1017
1026 1035 1043 1052 1061 1067 1073 1087 1095 1103 1109 1119 1136 1144 1152
1158 1166 1180 1186 1194 1203 1212 1225 1242 1251 1257 1265 1273 1281 1290
1298 1307 1316 1324 1337 1355 1375 1383 1397 1406 1414 1422 1432 1442 1455
1463 1469 1477 1486 1492 1501 1522 1527 1540 1548 1559 1567 1576 1586 1594
1599 1604 1614 1620 1629 1634 1651 1660 1669 1677 1685 1702 1710 1731 1740
1752 1769 1786 1803 1813 1821 1838 1843 1852 1861 1869 1877 1885 1894 1900
1908 1917 1922 1932 1940 1953 1961 1974 1980 1994 1999 2012 2025 2033 2042
2047 2053 2070 2078 2087 2092 2101 2107 2121 2130 2139 2150 2159 2172 2177
2186 2203 2209 2218 2227 2235 2245 2254 2268 2276 2285 2298 2307 2321 2329
2337 2345 2355 2366 2383 2400 2409 2418 2423 2434 2442 2451 2459 2467 2475
2484 2490 2504 2518 2535 2540 2553 2563 2580 2588 2595 2603 2611 2623 2629
2635 2653 2665 2678 2686 2694 2700 2705 2713 2719 2730 2736 2745 2751 2765
2778 2796 2813 2821 2830 2837 2845 2851 2860 2873 2882 2893 2901 2914 2920
2926 2947 2952 2965 2973 2978 2984 2998 3004 3009 3019 3037 3042 3048 3058
3064 3073 3083 3100 3109 3126 3135 3143 3159 3167 3176 3185 3198 3207 3225
3241 3249 3263 3280 3289 3298 3306 3320 3325 3333 3339 3351 3359 3372 3377
3391 3396 3409 3422 3430 3436 3445 3451 3460 3469 3480 3486 3494 3500 3514
3522 3531 3540 3548 3556 3567 3573 3582 3590 3596 3605 3613 3622 3631 3645
3651 3665 3678 3687 3704 3712 3720 3728 3736 3747 3764 3777 3786 3795 3803
3817 3825 3834 3843 3851 3860 3869 3875 3881 3895 3903 3911 3917 3927 3944
3952 3960 3966 3974 3988 3994 4002 4011 4020 4033 4050 4059 4065 4073 4081
4089 4098 4106 4115 4124 4132 4145 4163 4183 4191 4205 4214 4222 4230 4240
4250 4263 4271 4277 4285 4294 4300 4309 4330 4335 4348 4356 4367 4375 4384
4394 4402 4407 4412 4422 4428 4437 4442 4459 4468 4477 4485 4493 4510 4518
4539 4548 4560 4577 4594 4611 4621 4629 4646 4651 4660 4669 4677 4685 4693
4702 4708 4716 4725 4730 4740 4748 4761 4769 4782 4788 4802 4807 4820 4833
4841 4850 4855 4861 4878 4886 4895 4900 4909 4915 4929 4938 4947 4958 4967
4980 4985 4994 5011 5017 5026 5035 5043 5053 5062 5076 5084 5093 5106 5115
5129 5137 5145 5153 5163 5174 5191 5208 5217 5226 5231 5242 5250 5259 5267
5275 5283 5292 5298 5312 5326 5343 5348 5361 5371 5388 5396 5403 5411 5419
5431 5437 5443 5461 5473 5486 5494 5502 5508 5513 5521 5527 5538 5544 5553
5559 5573 5586 5604
